<?xml version="1.0" encoding="UTF-8"?>

<!-- generated on 2026-03-27T11:39:01.458320+01:00 by Eclipse SUMO sumo 1.26.0
<sumoConfiguration xmlns:xsi="http://www.w3.org/2001/XMLSchema-instance" xsi:noNamespaceSchemaLocation="http://sumo.dlr.de/xsd/sumoConfiguration.xsd">

    <input>
        <net-file value="camMap.net.xml"/>
        <route-files value="camCars.rou.xml"/>
    </input>

    <output>
        <tripinfo-output value="results/v2x_tripinfo.xml"/>
        <statistic-output value="results/v2x_stats.xml"/>
    </output>

    <time>
        <begin value="0"/>
        <end value="5000"/>
        <step-length value="0.1"/>
    </time>

    <report>
        <duration-log.statistics value="true"/>
        <no-step-log value="true"/>
    </report>

    <traci_server>
        <remote-port value="33199"/>
    </traci_server>

    <random_number>
        <seed value="0"/>
    </random_number>

</sumoConfiguration>
-->

<tripinfos xmlns:xsi="http://www.w3.org/2001/XMLSchema-instance" xsi:noNamespaceSchemaLocation="http://sumo.dlr.de/xsd/tripinfo_file.xsd">
    <tripinfo id="1" depart="0.00" departLane="A3B3_0" departPos="5.10" departSpeed="0.00" departDelay="0.00" arrival="79.60" arrivalLane="B3B4_0" arrivalPos="485.60" arrivalSpeed="15.50" duration="79.60" routeLength="980.29" waitingTime="0.00" waitingCount="0" stopTime="0.00" timeLoss="15.66" rerouteNo="0" devices="tripinfo_1" vType="type1" speedFactor="1.12" vaporized=""/>
    <tripinfo id="2" depart="0.00" departLane="C3B3_0" departPos="5.10" departSpeed="0.00" departDelay="0.00" arrival="92.90" arrivalLane="B3A3_0" arrivalPos="485.60" arrivalSpeed="14.56" duration="92.90" routeLength="980.50" waitingTime="0.20" waitingCount="1" stopTime="0.00" timeLoss="25.57" rerouteNo="0" devices="tripinfo_2" vType="type1" speedFactor="1.05" vaporized=""/>
    <tripinfo id="4" depart="4.80" departLane="C3B3_0" departPos="5.10" departSpeed="0.00" departDelay="4.80" arrival="95.10" arrivalLane="B3A3_0" arrivalPos="485.60" arrivalSpeed="14.06" duration="90.30" routeLength="980.50" waitingTime="0.00" waitingCount="0" stopTime="0.00" timeLoss="20.77" rerouteNo="0" devices="tripinfo_4" vType="type1" speedFactor="1.02" vaporized=""/>
    <tripinfo id="6" depart="9.70" departLane="C3B3_0" departPos="5.10" departSpeed="0.00" departDelay="9.70" arrival="96.60" arrivalLane="B3A3_0" arrivalPos="485.60" arrivalSpeed="15.02" duration="86.90" routeLength="980.50" waitingTime="0.00" waitingCount="0" stopTime="0.00" timeLoss="25.81" rerouteNo="0" devices="tripinfo_6" vType="type1" speedFactor="1.16" vaporized=""/>
    <tripinfo id="3" depart="4.90" departLane="A3B3_0" departPos="5.10" departSpeed="0.00" departDelay="4.90" arrival="104.40" arrivalLane="B3B4_0" arrivalPos="485.60" arrivalSpeed="14.28" duration="99.50" routeLength="980.29" waitingTime="6.70" waitingCount="1" stopTime="0.00" timeLoss="30.26" rerouteNo="0" devices="tripinfo_3" vType="type1" speedFactor="1.03" vaporized=""/>
    <tripinfo id="8" depart="14.60" departLane="C3B3_0" departPos="5.10" departSpeed="0.00" departDelay="14.60" arrival="116.60" arrivalLane="B3A3_0" arrivalPos="485.60" arrivalSpeed="10.60" duration="102.00" routeLength="980.50" waitingTime="0.00" waitingCount="0" stopTime="0.00" timeLoss="9.65" rerouteNo="0" devices="tripinfo_8" vType="type1" speedFactor="0.76" vaporized=""/>
    <tripinfo id="10" depart="19.50" departLane="C3B3_0" departPos="5.10" departSpeed="0.00" departDelay="19.50" arrival="118.30" arrivalLane="B3A3_0" arrivalPos="485.60" arrivalSpeed="11.60" duration="98.80" routeLength="980.50" waitingTime="0.00" waitingCount="0" stopTime="0.00" timeLoss="43.08" rerouteNo="0" devices="tripinfo_10" vType="type1" speedFactor="1.27" vaporized=""/>
    <tripinfo id="12" depart="24.20" departLane="C3B3_0" departPos="5.10" departSpeed="0.00" departDelay="24.20" arrival="119.80" arrivalLane="B3A3_0" arrivalPos="485.60" arrivalSpeed="12.18" duration="95.60" routeLength="980.50" waitingTime="0.00" waitingCount="0" stopTime="0.00" timeLoss="20.91" rerouteNo="0" devices="tripinfo_12" vType="type1" speedFactor="0.95" vaporized=""/>
    <tripinfo id="5" depart="9.80" departLane="A3B3_0" departPos="5.10" departSpeed="0.00" departDelay="9.80" arrival="124.00" arrivalLane="B3B4_0" arrivalPos="485.60" arrivalSpeed="12.25" duration="114.20" routeLength="980.29" waitingTime="9.30" waitingCount="1" stopTime="0.00" timeLoss="33.40" rerouteNo="0" devices="tripinfo_5" vType="type1" speedFactor="0.88" vaporized=""/>
    <tripinfo id="7" depart="14.70" departLane="A3B3_0" departPos="5.10" departSpeed="0.00" departDelay="14.70" arrival="125.60" arrivalLane="B3B4_0" arrivalPos="485.60" arrivalSpeed="13.13" duration="110.90" routeLength="980.29" waitingTime="6.40" waitingCount="1" stopTime="0.00" timeLoss="35.38" rerouteNo="0" devices="tripinfo_7" vType="type1" speedFactor="0.95" vaporized=""/>
    <tripinfo id="9" depart="19.60" departLane="A3B3_0" departPos="5.10" departSpeed="0.00" departDelay="19.60" arrival="127.10" arrivalLane="B3B4_0" arrivalPos="485.60" arrivalSpeed="13.76" duration="107.50" routeLength="980.29" waitingTime="4.80" waitingCount="1" stopTime="0.00" timeLoss="39.77" rerouteNo="0" devices="tripinfo_9" vType="type1" speedFactor="1.05" vaporized=""/>
    <tripinfo id="11" depart="24.50" departLane="A3B3_0" departPos="5.10" departSpeed="0.00" departDelay="24.50" arrival="128.50" arrivalLane="B3B4_0" arrivalPos="485.60" arrivalSpeed="14.28" duration="104.00" routeLength="980.29" waitingTime="2.80" waitingCount="1" stopTime="0.00" timeLoss="40.65" rerouteNo="0" devices="tripinfo_11" vType="type1" speedFactor="1.13" vaporized=""/>
</tripinfos>
